# vtk DataFile Version 3.0
vtk output
ASCII
DATASET UNSTRUCTURED_GRID
POINTS 2400 float
-5.000000e+01	-5.000000e+01	0.0	5.000000e+01	-5.000000e+01	0.0	5.000000e+01	5.000000e+01	0.0	-5.000000e+01	5.000000e+01	0.0	-4.983333e+01	-5.000000e+01	0.0	-4.966667e+01	-5.000000e+01	0.0	-4.950000e+01	-5.000000e+01	0.0	-4.933333e+01	-5.000000e+01	0.0	-4.916667e+01	-5.000000e+01	0.0	-4.900000e+01	-5.000000e+01	0.0	-4.883333e+01	-5.000000e+01	0.0	-4.866667e+01	-5.000000e+01	0.0	-4.850000e+01	-5.000000e+01	0.0	-4.833333e+01	-5.000000e+01	0.0	-4.816667e+01	-5.000000e+01	0.0	-4.800000e+01	-5.000000e+01	0.0	-4.783333e+01	-5.000000e+01	0.0	-4.766667e+01	-5.000000e+01	0.0	-4.750000e+01	-5.000000e+01	0.0	-4.733333e+01	-5.000000e+01	0.0	-4.716667e+01	-5.000000e+01	0.0	-4.700000e+01	-5.000000e+01	0.0	-4.683333e+01	-5.000000e+01	0.0	-4.666667e+01	-5.000000e+01	0.0	-4.650000e+01	-5.000000e+01	0.0	-4.633333e+01	-5.000000e+01	0.0	-4.616667e+01	-5.000000e+01	0.0	-4.600000e+01	-5.000000e+01	0.0	-4.583333e+01	-5.000000e+01	0.0	-4.566667e+01	-5.000000e+01	0.0	-4.550000e+01	-5.000000e+01	0.0	-4.533333e+01	-5.000000e+01	0.0	-4.516667e+01	-5.000000e+01	0.0	-4.500000e+01	-5.000000e+01	0.0	-4.483333e+01	-5.000000e+01	0.0	-4.466667e+01	-5.000000e+01	0.0	-4.450000e+01	-5.000000e+01	0.0	-4.433333e+01	-5.000000e+01	0.0	-4.416667e+01	-5.000000e+01	0.0	-4.400000e+01	-5.000000e+01	0.0	-4.383333e+01	-5.000000e+01	0.0	-4.366667e+01	-5.000000e+01	0.0	-4.350000e+01	-5.000000e+01	0.0	-4.333333e+01	-5.000000e+01	0.0	-4.316667e+01	-5.000000e+01	0.0	-4.300000e+01	-5.000000e+01	0.0	-4.283333e+01	-5.000000e+01	0.0	-4.266667e+01	-5.000000e+01	0.0	-4.250000e+01	-5.000000e+01	0.0	-4.233333e+01	-5.000000e+01	0.0	-4.216667e+01	-5.000000e+01	0.0	-4.200000e+01	-5.000000e+01	0.0	-4.183333e+01	-5.000000e+01	0.0	-4.166667e+01	-5.000000e+01	0.0	-4.150000e+01	-5.000000e+01	0.0	-4.133333e+01	-5.000000e+01	0.0	-4.116667e+01	-5.000000e+01	0.0	-4.100000e+01	-5.000000e+01	0.0	-4.083333e+01	-5.000000e+01	0.0	-4.066667e+01	-5.000000e+01	0.0	-4.050000e+01	-5.000000e+01	0.0	-4.033333e+01	-5.000000e+01	0.0	-4.016667e+01	-5.000000e+01	0.0	-4.000000e+01	-5.000000e+01	0.0	-3.983333e+01	-5.000000e+01	0.0	-3.966667e+01	-5.000000e+01	0.0	-3.950000e+01	-5.000000e+01	0.0	-3.933333e+01	-5.000000e+01	0.0	-3.916667e+01	-5.000000e+01	0.0	-3.900000e+01	-5.000000e+01	0.0	-3.883333e+01	-5.000000e+01	0.0	-3.866667e+01	-5.000000e+01	0.0	-3.850000e+01	-5.000000e+01	0.0	-3.833333e+01	-5.000000e+01	0.0	-3.816667e+01	-5.000000e+01	0.0	-3.800000e+01	-5.000000e+01	0.0	-3.783333e+01	-5.000000e+01	0.0	-3.766667e+01	-5.000000e+01	0.0	-3.750000e+01	-5.000000e+01	0.0	-3.733333e+01	-5.000000e+01	0.0	-3.716667e+01	-5.000000e+01	0.0	-3.700000e+01	-5.000000e+01	0.0	-3.683333e+01	-5.000000e+01	0.0	-3.666667e+01	-5.000000e+01	0.0	-3.650000e+01	-5.000000e+01	0.0	-3.633333e+01	-5.000000e+01	0.0	-3.616667e+01	-5.000000e+01	0.0	-3.600000e+01	-5.000000e+01	0.0	-3.583333e+01	-5.000000e+01	0.0	-3.566667e+01	-5.000000e+01	0.0	-3.550000e+01	-5.000000e+01	0.0	-3.533333e+01	-5.000000e+01	0.0	-3.516667e+01	-5.000000e+01	0.0	-3.500000e+01	-5.000000e+01	0.0	-3.483333e+01	-5.000000e+01	0.0	-3.466667e+01	-5.000000e+01	0.0	-3.450000e+01	-5.000000e+01	0.0	-3.433333e+01	-5.000000e+01	0.0	-3.416667e+01	-5.000000e+01	0.0	-3.400000e+01	-5.000000e+01	0.0	-3.383333e+01	-5.000000e+01	0.0	-3.366667e+01	-5.000000e+01	0.0	-3.350000e+01	-5.000000e+01	0.0	-3.333333e+01	-5.000000e+01	0.0	-3.316667e+01	-5.000000e+01	0.0	-3.300000e+01	-5.000000e+01	0.0	-3.283333e+01	-5.000000e+01	0.0	-3.266667e+01	-5.000000e+01	0.0	-3.250000e+01	-5.000000e+01	0.0	-3.233333e+01	-5.000000e+01	0.0	-3.216667e+01	-5.000000e+01	0.0	-3.200000e+01	-5.000000e+01	0.0	-3.183333e+01	-5.000000e+01	0.0	-3.166667e+01	-5.000000e+01	0.0	-3.150000e+01	-5.000000e+01	0.0	-3.133333e+01	-5.000000e+01	0.0	-3.116667e+01	-5.000000e+01	0.0	-3.100000e+01	-5.000000e+01	0.0	-3.083333e+01	-5.000000e+01	0.0	-3.066667e+01	-5.000000e+01	0.0	-3.050000e+01	-5.000000e+01	0.0	-3.033333e+01	-5.000000e+01	0.0	-3.016667e+01	-5.000000e+01	0.0	-3.000000e+01	-5.000000e+01	0.0	-2.983333e+01	-5.000000e+01	0.0	-2.966667e+01	-5.000000e+01	0.0	-2.950000e+01	-5.000000e+01	0.0	-2.933333e+01	-5.000000e+01	0.0	-2.916667e+01	-5.000000e+01	0.0	-2.900000e+01	-5.000000e+01	0.0	-2.883333e+01	-5.000000e+01	0.0	-2.866667e+01	-5.000000e+01	0.0	-2.850000e+01	-5.000000e+01	0.0	-2.833333e+01	-5.000000e+01	0.0	-2.816667e+01	-5.000000e+01	0.0	-2.800000e+01	-5.000000e+01	0.0	-2.783333e+01	-5.000000e+01	0.0	-2.766667e+01	-5.000000e+01	0.0	-2.750000e+01	-5.000000e+01	0.0	-2.733333e+01	-5.000000e+01	0.0	-2.716667e+01	-5.000000e+01	0.0	-2.700000e+01	-5.000000e+01	0.0	-2.683333e+01	-5.000000e+01	0.0	-2.666667e+01	-5.000000e+01	0.0	-2.650000e+01	-5.000000e+01	0.0	-2.633333e+01	-5.000000e+01	0.0	-2.616667e+01	-5.000000e+01	0.0	-2.600000e+01	-5.000000e+01	0.0	-2.583333e+01	-5.000000e+01	0.0	-2.566667e+01	-5.000000e+01	0.0	-2.550000e+01	-5.000000e+01	0.0	-2.533333e+01	-5.000000e+01	0.0	-2.516667e+01	-5.000000e+01	0.0	-2.500000e+01	-5.000000e+01	0.0	-2.483333e+01	-5.000000e+01	0.0	-2.466667e+01	-5.000000e+01	0.0	-2.450000e+01	-5.000000e+01	0.0	-2.433333e+01	-5.000000e+01	0.0	-2.416667e+01	-5.000000e+01	0.0	-2.400000e+01	-5.000000e+01	0.0	-2.383333e+01	-5.000000e+01	0.0	-2.366667e+01	-5.000000e+01	0.0	-2.350000e+01	-5.000000e+01	0.0	-2.333333e+01	-5.000000e+01	0.0	-2.316667e+01	-5.000000e+01	0.0	-2.300000e+01	-5.000000e+01	0.0	-2.283333e+01	-5.000000e+01	0.0	-2.266667e+01	-5.000000e+01	0.0	-2.250000e+01	-5.000000e+01	0.0	-2.233333e+01	-5.000000e+01	0.0	-2.216667e+01	-5.000000e+01	0.0	-2.200000e+01	-5.000000e+01	0.0	-2.183333e+01	-5.000000e+01	0.0	-2.166667e+01	-5.000000e+01	0.0	-2.150000e+01	-5.000000e+01	0.0	-2.133333e+01	-5.000000e+01	0.0	-2.116667e+01	-5.000000e+01	0.0	-2.100000e+01	-5.000000e+01	0.0	-2.083333e+01	-5.000000e+01	0.0	-2.066667e+01	-5.000000e+01	0.0	-2.050000e+01	-5.000000e+01	0.0	-2.033333e+01	-5.000000e+01	0.0	-2.016667e+01	-5.000000e+01	0.0	-2.000000e+01	-5.000000e+01	0.0	-1.983333e+01	-5.000000e+01	0.0	-1.966667e+01	-5.000000e+01	0.0	-1.950000e+01	-5.000000e+01	0.0	-1.933333e+01	-5.000000e+01	0.0	-1.916667e+01	-5.000000e+01	0.0	-1.900000e+01	-5.000000e+01	0.0	-1.883333e+01	-5.000000e+01	0.0	-1.866667e+01	-5.000000e+01	0.0	-1.850000e+01	-5.000000e+01	0.0	-1.833333e+01	-5.000000e+01	0.0	-1.816667e+01	-5.000000e+01	0.0	-1.800000e+01	-5.000000e+01	0.0	-1.783333e+01	-5.000000e+01	0.0	-1.766667e+01	-5.000000e+01	0.0	-1.750000e+01	-5.000000e+01	0.0	-1.733333e+01	-5.000000e+01	0.0	-1.716667e+01	-5.000000e+01	0.0	-1.700000e+01	-5.000000e+01	0.0	-1.683333e+01	-5.000000e+01	0.0	-1.666667e+01	-5.000000e+01	0.0	-1.650000e+01	-5.000000e+01	0.0	-1.633333e+01	-5.000000e+01	0.0	-1.616667e+01	-5.000000e+01	0.0	-1.600000e+01	-5.000000e+01	0.0	-1.583333e+01	-5.000000e+01	0.0	-1.566667e+01	-5.000000e+01	0.0	-1.550000e+01	-5.000000e+01	0.0	-1.533333e+01	-5.000000e+01	0.0	-1.516667e+01	-5.000000e+01	0.0	-1.500000e+01	-5.000000e+01	0.0	-1.483333e+01	-5.000000e+01	0.0	-1.466667e+01	-5.000000e+01	0.0	-1.450000e+01	-5.000000e+01	0.0	-1.433333e+01	-5.000000e+01	0.0	-1.416667e+01	-5.000000e+01	0.0	-1.400000e+01	-5.000000e+01	0.0	-1.383333e+01	-5.000000e+01	0.0	-1.366667e+01	-5.000000e+01	0.0	-1.350000e+01	-5.000000e+01	0.0	-1.333333e+01	-5.000000e+01	0.0	-1.316667e+01	-5.000000e+01	0.0	-1.300000e+01	-5.000000e+01	0.0	-1.283333e+01	-5.000000e+01	0.0	-1.266667e+01	-5.000000e+01	0.0	-1.250000e+01	-5.000000e+01	0.0	-1.233333e+01	-5.000000e+01	0.0	-1.216667e+01	-5.000000e+01	0.0	-1.200000e+01	-5.000000e+01	0.0	-1.183333e+01	-5.000000e+01	0.0	-1.166667e+01	-5.000000e+01	0.0	-1.150000e+01	-5.000000e+01	0.0	-1.133333e+01	-5.000000e+01	0.0	-1.116667e+01	-5.000000e+01	0.0	-1.100000e+01	-5.000000e+01	0.0	-1.083333e+01	-5.000000e+01	0.0	-1.066667e+01	-5.000000e+01	0.0	-1.050000e+01	-5.000000e+01	0.0	-1.033333e+01	-5.000000e+01	0.0	-1.016667e+01	-5.000000e+01	0.0	-1.000000e+01	-5.000000e+01	0.0	-9.833333e+00	-5.000000e+01	0.0	-9.666667e+00	-5.000000e+01	0.0	-9.500000e+00	-5.000000e+01	0.0	-9.333333e+00	-5.000000e+01	0.0	-9.166667e+00	-5.000000e+01	0.0	-9.000000e+00	-5.000000e+01	0.0	-8.833333e+00	-5.000000e+01	0.0	-8.666667e+00	-5.000000e+01	0.0	-8.500000e+00	-5.000000e+01	0.0	-8.333333e+00	-5.000000e+01	0.0	-8.166667e+00	-5.000000e+01	0.0	-8.000000e+00	-5.000000e+01	0.0	-7.833333e+00	-5.000000e+01	0.0	-7.666667e+00	-5.000000e+01	0.0	-7.500000e+00	-5.000000e+01	0.0	-7.333333e+00	-5.000000e+01	0.0	-7.166667e+00	-5.000000e+01	0.0	-7.000000e+00	-5.000000e+01	0.0	-6.833333e+00	-5.000000e+01	0.0	-6.666667e+00	-5.000000e+01	0.0	-6.500000e+00	-5.000000e+01	0.0	-6.333333e+00	-5.000000e+01	0.0	-6.166667e+00	-5.000000e+01	0.0	-6.000000e+00	-5.000000e+01	0.0	-5.833333e+00	-5.000000e+01	0.0	-5.666667e+00	-5.000000e+01	0.0	-5.500000e+00	-5.000000e+01	0.0	-5.333333e+00	-5.000000e+01	0.0	-5.166667e+00	-5.000000e+01	0.0	-5.000000e+00	-5.000000e+01	0.0	-4.833333e+00	-5.000000e+01	0.0	-4.666667e+00	-5.000000e+01	0.0	-4.500000e+00	-5.000000e+01	0.0	-4.333333e+00	-5.000000e+01	0.0	-4.166667e+00	-5.000000e+01	0.0	-4.000000e+00	-5.000000e+01	0.0	-3.833333e+00	-5.000000e+01	0.0	-3.666667e+00	-5.000000e+01	0.0	-3.500000e+00	-5.000000e+01	0.0	-3.333333e+00	-5.000000e+01	0.0	-3.166667e+00	-5.000000e+01	0.0	-3.000000e+00	-5.000000e+01	0.0	-2.833333e+00	-5.000000e+01	0.0	-2.666667e+00	-5.000000e+01	0.0	-2.500000e+00	-5.000000e+01	0.0	-2.333333e+00	-5.000000e+01	0.0	-2.166667e+00	-5.000000e+01	0.0	-2.000000e+00	-5.000000e+01	0.0	-1.833333e+00	-5.000000e+01	0.0	-1.666667e+00	-5.000000e+01	0.0	-1.500000e+00	-5.000000e+01	0.0	-1.333333e+00	-5.000000e+01	0.0	-1.166667e+00	-5.000000e+01	0.0	-1.000000e+00	-5.000000e+01	0.0	-8.333333e-01	-5.000000e+01	0.0	-6.666667e-01	-5.000000e+01	0.0	-5.000000e-01	-5.000000e+01	0.0	-3.333333e-01	-5.000000e+01	0.0	-1.666667e-01	-5.000000e+01	0.0	-1.649236e-13	-5.000000e+01	0.0	1.666667e-01	-5.000000e+01	0.0	3.333333e-01	-5.000000e+01	0.0	5.000000e-01	-5.000000e+01	0.0	6.666667e-01	-5.000000e+01	0.0	8.333333e-01	-5.000000e+01	0.0	1.000000e+00	-5.000000e+01	0.0	1.
[...]
POINT_DATA 2400

SCALARS Conservative_1 float 1
LOOKUP_TABLE default
8.164739e-02	-2.008395e-01	-2.047480e-01	-2.422437e-01	-1.525833e-01	-1.795012e-01	-1.510291e-01	-1.231347e-01	-1.036522e-01	-9.036001e-02	-8.148527e-02	-7.372739e-02	-6.684927e-02	-6.007719e-02	-5.302335e-02	-4.601649e-02	-3.623960e-02	-2.545437e-02	-1.530097e-02	-6.814046e-03	-1.194334e-03	3.625740e-03	8.230466e-03	1.237611e-02	1.634861e-02	1.977451e-02	2.505201e-02	3.101380e-02	3.681531e-02	4.195907e-02	4.544842e-02	4.836315e-02	5.138249e-02	5.393669e-02	5.626987e-02	5.812325e-02	6.104219e-02	6.421284e-02	6.782549e-02	7.193307e-02	7.494059e-02	7.729891e-02	7.970192e-02	8.152805e-02	8.335075e-02	8.467873e-02	8.703199e-02	8.953263e-02	9.191655e-02	9.449268e-02	9.624826e-02	9.756489e-02	9.914646e-02	1.003012e-01	1.014128e-01	1.023347e-01	1.043025e-01	1.068311e-01	1.096056e-01	1.120927e-01	1.136184e-01	1.143350e-01	1.157665e-01	1.179236e-01	1.192212e-01	1.194893e-01	1.204497e-01	1.217353e-01	1.233700e-01	1.247824e-01	1.254568e-01	1.254814e-01	1.260748e-01	1.275583e-01	1.299583e-01	1.320613e-01	1.330437e-01	1.332374e-01	1.343385e-01	1.364084e-01	1.374042e-01	1.377663e-01	1.388355e-01	1.397245e-01	1.408439e-01	1.416552e-01	1.413733e-01	1.418010e-01	1.430166e-01	1.443197e-01	1.450149e-01	1.447610e-01	1.451437e-01	1.461498e-01	1.471616e-01	1.476028e-01	1.469587e-01	1.467287e-01	1.476297e-01	1.492069e-01	1.496650e-01	1.498360e-01	1.501873e-01	1.504034e-01	1.510266e-01	1.515789e-01	1.513560e-01	1.509953e-01	1.509012e-01	1.516082e-01	1.519736e-01	1.516938e-01	1.518425e-01	1.526348e-01	1.543315e-01	1.555622e-01	1.557650e-01	1.553449e-01	1.557502e-01	1.565544e-01	1.562551e-01	1.558902e-01	1.560266e-01	1.566619e-01	1.577065e-01	1.584400e-01	1.582587e-01	1.579736e-01	1.584061e-01	1.593772e-01	1.595139e-01	1.588592e-01	1.586327e-01	1.589047e-01	1.594393e-01	1.596724e-01	1.593058e-01	1.585324e-01	1.586769e-01	1.592855e-01	1.591597e-01	1.586427e-01	1.581498e-01	1.578694e-01	1.586887e-01	1.594079e-01	1.592019e-01	1.587981e-01	1.589808e-01	1.598863e-01	1.601084e-01	1.595778e-01	1.596716e-01	1.602501e-01	1.610778e-01	1.613929e-01	1.609713e-01	1.603778e-01	1.612041e-01	1.622606e-01	1.621625e-01	1.616474e-01	1.612970e-01	1.610617e-01	1.611836e-01	1.610172e-01	1.601806e-01	1.594922e-01	1.592654e-01	1.595761e-01	1.593810e-01	1.586174e-01	1.580669e-01	1.577018e-01	1.582951e-01	1.587564e-01	1.586187e-01	1.580365e-01	1.584287e-01	1.591745e-01	1.589604e-01	1.583374e-01	1.576542e-01	1.568862e-01	1.571984e-01	1.574181e-01	1.570555e-01	1.568989e-01	1.573751e-01	1.580249e-01	1.576314e-01	1.566358e-01	1.561067e-01	1.557621e-01	1.557979e-01	1.555609e-01	1.549197e-01	1.540767e-01	1.540986e-01	1.544116e-01	1.536754e-01	1.528190e-01	1.522334e-01	1.517463e-01	1.519826e-01	1.520483e-01	1.514954e-01	1.511064e-01	1.507272e-01	1.497056e-01	1.488571e-01	1.487258e-01	1.495203e-01	1.493993e-01	1.492410e-01	1.492307e-01	1.491062e-01	1.489068e-01	1.493357e-01	1.485436e-01	1.479960e-01	1.473299e-01	1.476047e-01	1.476586e-01	1.480184e-01	1.481572e-01	1.476813e-01	1.475268e-01	1.477632e-01	1.466109e-01	1.460934e-01	1.451991e-01	1.453193e-01	1.450128e-01	1.454165e-01	1.453853e-01	1.450218e-01	1.447081e-01	1.450931e-01	1.441882e-01	1.436109e-01	1.429637e-01	1.431253e-01	1.424558e-01	1.424662e-01	1.422022e-01	1.415843e-01	1.411817e-01	1.409382e-01	1.400567e-01	1.404978e-01	1.402852e-01	1.403311e-01	1.406127e-01	1.408626e-01	1.403614e-01	1.395892e-01	1.388796e-01	1.386081e-01	1.378751e-01	1.381031e-01	1.382730e-01	1.385107e-01	1.384005e-01	1.381406e-01	1.372021e-01	1.357375e-01	1.349904e-01	1.340981e-01	1.323079e-01	1.324444e-01	1.322575e-01	1.324853e-01	1.330591e-01	1.336569e-01	1.335145e-01	1.330430e-01	1.326895e-01	1.326522e-01	1.321035e-01	1.319658e-01	1.318929e-01	1.322421e-01	1.320083e-01	1.311859e-01	1.307455e-01	1.295779e-01	1.287305e-01	1.279470e-01	1.268863e-01	1.271333e-01	1.268278e-01	1.267488e-01	1.267952e-01	1.269188e-01	1.264036e-01	1.250997e-01	1.244787e-01	1.239490e-01	1.231008e-01	1.228757e-01	1.228839e-01	1.230906e-01	1.228348e-01	1.228319e-01	1.224064e-01	1.210455e-01	1.207202e-01	1.200862e-01	1.186839e-01	1.186834e-01	1.183741e-01	1.183466e-01	1.183490e-01	1.184523e-01	1.181033e-01	1.170454e-01	1.164165e-01	1.158805e-01	1.153840e-01	1.155055e-01	1.155986e-01	1.156180e-01	1.151149e-01	1.148885e-01	1.143540e-01	1.134657e-01	1.129662e-01	1.121388e-01	1.106292e-01	1.106316e-01	1.104125e-01	1.106492e-01	1.109099e-01	1.110955e-01	1.104546e-01	1.096830e-01	1.092434e-01	1.089690e-01	1.082136e-01	1.075952e-01	1.077292e-01	1.067088e-01	1.056733e-01	1.056503e-01	1.062185e-01	1.049703e-01	1.042428e-01	1.043501e-01	1.032140e-01	1.026181e-01	1.023990e-01	1.012454e-01	1.009917e-01	1.002807e-01	9.939089e-02	9.864209e-02	9.865556e-02	9.849107e-02	9.746017e-02	9.675614e-02	9.602984e-02	9.517125e-02	9.469920e-02	9.486775e-02	9.599347e-02	9.597328e-02	9.541425e-02	9.468266e-02	9.348271e-02	9.247587e-02	9.116372e-02	8.975070e-02	8.975267e-02	8.967611e-02	9.076257e-02	9.108498e-02	9.041606e-02	9.049990e-02	8.982666e-02	8.893579e-02	8.745170e-02	8.622350e-02	8.576462e-02	8.565693e-02	8.582590e-02	8.459306e-02	8.475159e-02	8.441023e-02	8.262498e-02	8.161691e-02	8.119482e-02	7.991349e-02	7.960522e-02	7.886997e-02	7.798308e-02	7.732694e-02	7.753269e-02	7.761540e-02	7.674394e-02	7.629511e-02	7.572913e-02	7.497046e-02	7.452342e-02	7.468061e-02	7.583216e-02	7.588557e-02	7.540951e-02	7.544326e-02	7.449077e-02	7.355572e-02	7.216472e-02	7.049399e-02	7.028127e-02	6.996928e-02	7.054427e-02	7.015867e-02	6.906136e-02	6.884530e-02	6.749743e-02	6.651188e-02	6.488970e-02	6.351470e-02	6.311238e-02	6.313990e-02	6.359145e-02	6.355733e-02	6.359591e-02	6.455961e-02	6.400195e-02	6.290343e-02	6.131687e-02	5.946496e-02	5.916368e-02	5.882270e-02	5.937745e-02	5.899210e-02	5.784272e-02	5.755966e-02	5.609809e-02	5.500916e-02	5.336457e-02	5.184281e-02	5.143198e-02	5.191593e-02	5.332666e-02	5.361851e-02	5.338505e-02	5.264988e-02	5.100043e-02	4.935599e-02	4.738878e-02	4.547682e-02	4.515595e-02	4.436689e-02	4.366266e-02	4.305531e-02	4.239973e-02	4.252424e-02	4.238691e-02	4.208520e-02	4.081627e-02	3.957681e-02	3.915584e-02	3.908267e-02	3.929312e-02	3.907428e-02	3.895430e-02	3.996681e-02	3.888241e-02	3.807599e-02	3.785584e-02	3.662618e-02	3.614529e-02	3.637782e-02	3.479656e-02	3.258202e-02	3.168647e-02	3.187009e-02	3.136952e-02	3.071851e-02	2.941261e-02	2.874235e-02	2.829038e-02	2.874105e-02	2.753024e-02	2.621181e-02	2.543145e-02	2.565822e-02	2.482892e-02	2.369513e-02	2.219490e-02	2.047979e-02	2.007392e-02	2.039465e-02	1.859733e-02	1.746284e-02	1.626879e-02	1.628345e-02	1.514335e-02	1.427700e-02	1.296086e-02	1.176821e-02	1.122808e-02	1.164701e-02	1.005813e-02	9.193013e-03	8.508171e-03	8.656708e-03	7.781197e-03	6.613756e-03	5.041451e-03	3.342811e-03	2.945468e-03	3.194819e-03	1.295549e-03	4.760506e-05	-1.351070e-03	-1.709780e-03	-2.751144e-03	-3.765433e-03	-5.022504e-03	-6.040135e-03	-6.731636e-03	-6.418494e-03	-7.903036e-03	-9.438152e-03	-1.036611e-02	-1.017525e-02	-1.126969e-02	-1.246265e-02	-1.414736e-02	-1.567850e-02	-1.617907e-02	-1.603619e-02	-1.812941e-02	-1.944731e-02	-2.072120e-02	-2.077500e-02	-2.246275e-02	-2.416619e-02	-2.457857e-02	-2.550814e-02	-2.668077e-02	-2.694923e-02	-2.893676e-02	-3.109878e-02	-3.244427e-02	-3.254156e-02	-3.389557e-02	-3.562891e-02	-3.690417e-02	-3.866763e-02	-3.963918e-02	-3.966418e-02	-4.189190e-02	-4.324837e-02	-4.459650e-02	-4.480298e-02	-4.675049e-02	-4.817828e-02	-5.008078e-02	-5.182887e-02	-5.304517e-02	-5.307569e-02	-5.503128e-02	-5.732979e-02	-5.884442e-02	-5.903981e-02	-6.063737e-02	-6.266055e-02	-6.565157e-02	-6.868439e-02	-7.030383e-02	-7.105047e-02	-7.431025e-02	-7.638692e-02	-7.780446e-02	-7.801390e-02	-8.013130e-02	-8.298550e-02	-8.693141e-02	-8.979674e-02	-9.051786e-02	-9.065318e-02	-9.327544e-02	-9.621220e-02	-9.995369e-02	-1.012313e-01	-1.058621e-01	-1.107533e-01	-1.163787e-01	-1.211473e-01	-1.225397e-01	-1.236001e-01	-1.265913e-01	-1.281696e-01	-1.307383e-01	-1.352425e-01	-1.427709e-01	-1.488399e-01	-1.551238e-01	-1.682127e-01	-2.174948e-01	-2.071496e-01	-2.027787e-01	-2.008653e-01	-1.999299e-01	-1.991898e-01	-1.984358e-01	-1.977708e-01	-1.970722e-01	-1.963137e-01	-1.957990e-01	-1.952166e-01	-1.946308e-01	-1.942144e-01	-1.937803e-01	-1.931834e-01	-1.927825e-01	-1.922978e-01	-1.915974e-01	-1.911143e-01	-1.908656e-01	-1.905593e-01	-1.901346e-01	-1.898216e-01	-1.896057e-01	-1.897234e-01	-1.897763e-01	-1.896022e-01	-1.895382e-01	-1.893947e-01	-1.892343e-01	-1.892090e-01	-1.889933e-01	-1.886549e-01	-1.885504e-01	-1.883447e-01	-1.882335e-01	-1.881251e-01	-1.878763e-01	-1.876785e-01	-1.875012e-01	-1.874566e-01	-1.874153e-01	-1.871569e-01	-1.871189e-01	-1.870481e-01	-1.869854e-01	-1.869806e-01	-1.869248e-01	-1.868353e-01	-1.867279e-01	-1.867026e-01	-1.865902e-01	-1.865278e-01	-1.864422e-01	-1.861798e-01	-1.861921e-01	-1.862553e-01	-1.861629e-01	-1.860826e-01	-1.860000e-01	-1.860322e-01	-1.860516e-01	-1.858315e-01	-1.858367e-01	-1.858101e-01	-1.858072e-01	-1.858498e-01	-1.858380e-01	-1.857738e-01	-1.856833e-01	-1.856367e-01	-1.854684e-01	-1.853662e-01	-1.855057e-01	-1.854630e-01	-1.852637e-01	-1.851653e-01	-1.850693e-01	-1.851143e-01	-1.851434e-01	-1.848874e-01	-1.846838e-01	-1.845262e-01	-1.846106e-01	-1.846130e-01	-1.846123e-01	-1.846451e-01	-1.845881e-01	-1.845713e-01	-1.846452e-01	-1.845614e-01	-1.845418e-01	-1.845390e-01	-1.844380e-01	-1.840815e-01	-1.839971e-01	-1.840886e-01	-1.841019e-01	-1.841018e-01	-1.840575e-01	-1.839447e-01	-1.838092e-01	-1.837938e-01	-1.840586e-01	-1.840677e-01	-1.838173e-01	-1.836573e-01	-1.837155e-01	-1.836291e-01	-1.834718e-01	-1.834187e-01	-1.833767e-01	-1.832356e-01	-1.831441e-01	-1.829921e-01	-1.829309e-01	-1.829872e-01	-1.829393e-01	-1.830586e-01	-1.831801e-01	-1.829742e-01	-1.828525e-01	-1.828936e-01	-1.832207e-01	-1.833360e-01	-1.831786e-01	-1.832605e-01	-1.834122e-01	-1.831881e-01	-1.829910e-01	-1.829496e-01	-1.829614e-01	-1.828735e-01	-1.827832e-01	-1.825519e-01	-1.826058e-01	-1.827944e-01	-1.827330e-01	-1.826693e-01	-1.825756e-01	-1.824564e-01	-1.822813e-01	-1.821680e-01	-1.823043e-01	-1.823283e-01	-1.821161e-01	-1.820110e-01	-1.819913e-01	-1.820808e-01	-1.822171e-01	-1.821979e-01	-1.822515e-01	-1.821692e-01	-1.819757e-01	-1.817872e-01	-1.816765e-01	-1.814760e-01	-1.813794e-01	-1.814182e-01	-1.813345e-01	-1.812455e-01	-1.813439e-01	-1.814638e-01	-1.813532e-01	-1.814632e-01	-1.814118e-01	-1.811695e-01	-1.810999e-01	-1.810247e-01	-1.808542e-01	-1.807723e-01	-1.807992e-01	-1.808591e-01	-1.808143e-01	-1.809480e-01	-1.808840e-01	-1.806376e-01	-1.804960e-01	-1.804320e-01	-1.802709e-01	-1.801229e-01	-1.801605e-01	-1.802165e-01	-1.800808e-01	-1.802314e-01	-1.801927e-01	-1.799775e-01	-1.799645e-01	-1.799616e-01	-1.798485e-01	-1.797979e-01	-1.798356e-01	-1.798852e-01	-1.798296e-01	-1.799591e-01	-1.798705e-01	-1.796479e-01	-1.794944e-01	-1.794142e-01	-1.792430e-01	-1.790879e-01	-1.791163e-01	-1.791738e-01	-1.790501e-01	-1.792293e-01	-1.793449e-01	-1.791005e-01	-1.790377e-01	-1.789818e-01	-1.788281e-01	-1.787636e-01	-1.788005e-01	-1.788595e-01	-1.788196e-01	-1.789761e-01	-1.790694e-01	-1.788095e-01	-1.786531e-01	-1.785803e-01	-1.784142e-01	-1.782569e-01	-1.782758e-01	-1.783001e-01	-1.781233e-01	-1.781602e-01	-1.781539e-01	-1.778885e-01	-1.777936e-01	-1.777112e-01	-1.775738e-01	-1.775972e-01	-1.777672e-01	-1.778025e-01	-1.775891e-01	-1.774933e-01	-1.774586e-01	-1.772963e-01	-1.771367e-01	-1.771467e-01	-1.772106e-01	-1.770608e-01	-1.770567e-01	-1.770768e-01	-1.768986e-01	-1.770159e-01	-1.770606e-01	-1.768076e-01	-1.768113e-01	-1.769586e-01	-1.770184e-01	-1.768507e-01	-1.766629e-01	-1.765153e-01	-1.764409e-01	-1.764732e-01	-1.764458e-01	-1.761799e-01	-1.760407e-01	-1.760248e-01	-1.759198e-01	-1.758391e-01	-1.759175e-01	-1.760135e-01	-1.758796e-01	-1.759967e-01	-1.760347e-01	-1.757811e-01	-1.756795e-01	-1.755709e-01	-1.753781e-01	-1.752751e-01	-1.752721e-01	-1.752958e-01	-1.752383e-01	-1.753678e-01	-1.754416e-01	-1.751534e-01	-1.749541e-01	-1.748665e-01	-1.746953e-01	-1.745325e-01	-1.745434e-01	-1.745632e-01	-1.743937e-01	-1.744544e-01	-1.744678e-01	-1.742148e-01	-1.741373e-01	-1.740618e-01	-1.739060e-01	-1.738799e-01	-1.739264e-01	-1.738617e-01	-1.737190e-01	-1.736565e-01	-1.736359e-01	-1.736380e-01	-1.735582e-01	-1.735575e-01	-1.735735e-01	-1.734187e-01	-1.734769e-01	-1.735918e-01	-1.734631e-01	-1.733380e-01	-1.731813e-01	-1.730025e-01	-1.728163e-01	-1.727631e-01	-1.729813e-01	-1.729754e-01	-1.727192e-01	-1.725420e-01	-1.725872e-01	-1.726015e-01	-1.725665e-01	-1.723763e-01	-1.721776e-01	-1.720740e-01	-1.721617e-01	-1.720861e-01	-1.718541e-01	-1.717171e-01	-1.715829e-01	-1.715945e-01	-1.716016e-01	-1.713438e-01	-1.711511e-01	-1.710482e-01	-1.712565e-01	-1.711717e-01	-1.708766e-01	-1.707624e-01	-1.708639e-01	-1.709831e-01	-1.711155e-01	-1.711947e-01	-1.710522e-01	-1.708210e-01	-1.707020e-01	-1.705992e-01	-1.705460e-01	-1.707257e-01	-1.708729e-01	-1.708460e-01	-1.706913e-01	-1.704897e-01	-1.703182e-01	-1.703199e-01	-1.704854e-01	-1.704437e-01	-1.701818e-01	-1.699892e-01	-1.700312e-01	-1.698900e-01	-1.696887e-01	-1.695244e-01	-1.694845e-01	-1.694828e-01	-1.694262e-01	-1.691928e-01	-1.691350e-01	-1.692694e-01	-1.693647e-01	-1.693982e-01	-1.693748e-01	-1.693036e-01	-1.691944e-01	-1.690267e-01	-1.688749e-01	-1.685894e-01	-1.684639e-01	-1.685115e-01	-1.686099e-01	-1.684566e-01	-1.683176e-01	-1.682028e-01	-1.681926e-01	-1.682008e-01	-1.681156e-01	-1.678895e-01	-1.678922e-01	-1.680599e-01	-1.680681e-01	-1.678947e-01	-1.677484e-01	-1.676558e-01	-1.675560e-01	-1.674387e-01	-1.673311e-01	-1.670596e-01	-1.669391e-01	-1.669916e-01	-1.670781e-01	-1.669015e-01	-1.667536e-01	-1.666397e-01	-1.666229e-01	-1.666003e-01	-1.664949e-01	-1.662244e-01	-1.661323e-01	-1.662093e-01	-1.663406e-01	-1.663024e-01	-1.663521e-01	-1.663030e-01	-1.662573e-01	-1.660919e-01	-1.660984e-01	-1.660540e-01	-1.659068e-01	-1.658843e-01	-1.658014e-01	-1.657377e-01	-1.655994e-01	-1.654602e-01	-1.654050e-01	-1.653837e-01	-1.652941e-01	-1.650644e-01	-1.649134e-01	-1.650078e-01	-1.650241e-01	-1.649701e-01	-1.649046e-01	-1.647943e-01	-1.646864e-01	-1.646007e-01	-1.644186e-01	-1.643367e-01	-1.642032e-01	-1.640708e-01	-1.639745e-01	-1.639539e-01	-1.639792e-01	-1.639706e-01	-1.640440e-01	-1.640494e-01	-1.639394e-01	-1.639294e-01	-1.638563e-01	-1.636728e-01	-1.635563e-01	-1.634912e-01	-1.633663e-01	-1.632433e-01	-1.632699e-01	-1.632904e-01	-1.631519e-01	-1.630697e-01	-1.629698e-01	-1.627843e-01	-1.627206e-01	-1.626626e-01	-1.625612e-01	-1.624869e-01	-1.624607e-01	-1.624195e-01	-1.623487e-01	-1.623874e-01	-1.623783e-01	-1.622170e-01	-1.621330e-01	-1.621212e-01	-1.620769e-01	-1.619681e-01	-1.618512e-01	-1.617533e-01	-1.616567e-01	-1.616555e-01	-1.616243e-01	-1.614660e-01	-1.614179e-01	-1.613861e-01	-1.613135e-01	-1.612536e-01	-1.612299e-01	-1.611869e-01	-1.611208e-01	-1.611280e-01	-1.611139e-01	-1.609619e-01	-1.608530e-01	-1.607909e-01	-1.607012e-01	-1.606075e-01	-1.605864e-01	-1.605501e-01	-1.604559e-01	-1.604718e-01	-1.604654e-01	-1.603171e-01	-1.602626e-01	-1.602591e-01	-1.602219e-01	-1.601340e-01	-1.600483e-01	-1.599673e-01	-1.599149e-01	-1.598975e-01	-1.598659e-01	-1.597363e-01	-1.596522e-01	-1.596162e-01	-1.595613e-01	-1.595029e-01	-1.594928e-01	-1.594656e-01	-1.593973e-01	-1.594121e-01	-1.594093e-01	-1.592983e-01	-1.592357e-01	-1.591798e-01	-1.591137e-01	-1.590669e-01	-1.590417e-01	-1.590020e-01	-1.589651e-01	-1.589622e-01	-1.589431e-01	-1.588545e-01	-1.587814e-01	-1.587356e-01	-1.586870e-01	-1.586425e-01	-1.586282e-01	-1.585968e-01	-1.585607e-01	-1.585730e-01	-1.585681e-01	-1.585274e-01	-1.584981e-01	-1.584689e-01	-1.584344e-01	-1.584050e-01	-1.583925e-01	-1.583787e-01	-1.583731e-01	-1.583733e-01	-1.583773e-01	-1.583656e-01	-1.583534e-01	-1.583420e-01	-1.583355e-01	-1.583400e-01	-1.583472e-01	-1.583295e-01	-1.583361e-01	-1.583503e-01	-1.583519e-01	-1.583787e-01	-1.583841e-01	-1.583857e-01	-1.584001e-01	-1.584240e-01	-1.584516e-01	-1.584764e-01	-1.585221e-01	-1.585759e-01	-1.585955e-01	-1.586186e-01	-1.586605e-01	-1.587254e-01	-1.588065e-01	-1.589072e-01	-1.589962e-01	-1.590774e-01	-1.592108e-01	-1.593028e-01	-1.593713e-01	-1.594986e-01	-1.596147e-01	-1.597322e-01	-1.598001e-01	-1.599751e-01	-1.602086e-01	-1.604681e-01	-1.606008e-01	-1.608203e-01	-1.610787e-01	-1.613041e-01	-1.615835e-01	-1.619034e-01	-1.622687e-01	-1.627376e-01	-1.631930e-01	-1.638392e-01	-1.645563e-01	-1.655094e-01	-1.661949e-01	-1.671758e-01	-1.685758e-01	-1.700528e-01	-1.718764e-01	-1.748063e-01	-1.811699e-01	-2.914934e-01	-2.786477e-01	-2.705392e-01	-2.665895e-01	-2.629721e-01	-2.599810e-01	-2.574648e-01	-2.551621e-01	-2.533337e-01	-2.515331e-01	-2.499179e-01	-2.484227e-01	-2.468726e-01	-2.450559e-01	-2.438679e-01	-2.431413e-01	-2.421383e-01	-2.413856e-01	-2.407695e-01	-2.401474e-01	-2.394209e-01	-2.390366e-01	-2.385291e-01	-2.379873e-01	-2.373442e-01	-2.370415e-01	-2.365681e-01	-2.362832e-01	-2.359366e-01	-2.357484e-01	-2.353846e-01	-2.353585e-01	-2.350160e-01	-2.345986e-01	-2.342295e-01	-2.342320e-01	-2.338680e-01	-2.336137e-01	-2.332526e-01	-2.328867e-01	-2.324326e-01	-2.324195e-01	-2.322195e-01	-2.320517e-01	-2.317210e-01	-2.316841e-01	-2.314156e-01	-2.313081e-01	-2.310236e-01	-2.308149e-01	-2.305012e-01	-2.305183e-01	-2.302208e-01	-2.298342e-01	-2.294722e-01	-2.294954e-01	-2.292122e-01	-2.291696e-01	-2.290057e-01	-2.289484e-01	-2.286500e-01	-2.287071e-01	-2.285120e-01	-2.283169e-01	-2.278859e-01	-2.277106e-01	-2.273592e-01	-2.271910e-01	-2.269478e-01	-2.268244e-01	-2.265493e-01	-2.266016e-01	-2.263939e-01	-2.262806e-01	-2.261265e-01	-2.259814e-01	-2.253491e-01	-2.251615e-01	-2.249530e-01	-2.249115e-01	-2.246487e-01	-2.246597e-01	-2.243185e-01	-2.240932e-01	-2.237833e-01	-2.235926e-01	-2.231977e-01	-2.230307e-01	-2.228584e-01	-2.228345e-01	-2.226216e-01	-2.226221e-01	-2.223850e-01	-2.223507e-01	-2.221299e-01	-2.219670e-01	-2.214380e-01	-2.212956e-01	-2.211130e-01	-2.209586e-01	-2.205873e-01	-2.205110e-01	-2.202203e-01	-2.201656e-01	-2.201012e-01	-2.202544e-01	-2.200318e-01	-2.199158e-01	-2.197092e-01	-2.195799e-01	-2.192186e-01	-2.190273e-01	-2.187272e-01	-2.187275e-01	-2.186184e-01	-2.186193e-01	-2.181881e-01	-2.181657e-01	-2.180458e-01	-2.179934e-01	-2.177043e-01	-2.176829e-01	-2.173708e-01	-2.171977e-01	-2.170142e-01	-2.170000e-01	-2.167072e-01	-2.165527e-01	-2.163777e-01	-2.163738e-01	-2.161915e-01	-2.162422e-01	-2.161121e-01	-2.160957e-01	-2.158985e-01	-2.157509e-01	-2.154238e-01	-2.154089e-01	-2.153128e-01	-2.153505e-01	-2.151863e-01	-2.151541e-01	-2.148286e-01	-2.146385e-01	-2.144696e-01	-2.145265e-01	-2.143299e-01	-2.142840e-01	-2.141489e-01	-2.140798e-01	-2.138163e-01	-2.137043e-01	-2.134494e-01	-2.133671e-01	-2.131825e-01	-2.130748e-01	-2.126550e-01	-2.126142e-01	-2.125297e-01	-2.125446e-01	-2.123434e-01	-2.124248e-01	-2.122133e-01	-2.121826e-01	-2.120923e-01	-2.121433e-01	-2.119144e-01	-2.118229e-01	-2.116700e-01	-2.116353e-01	-2.114339e-01	-2.114372e-01	-2.112535e-01	-2.113093e-01	-2.112452e-01	-2.112884e-01	-2.109569e-01	-2.109245e-01	-2.108013e-01	-2.107155e-01	-2.104056e-01	-2.102861e-01	-2.100148e-01	-2.099582e-01	-2.098877e-01	-2.100122e-01	-2.098622e-01	-2.098758e-01	-2.098120e-01	-2.098370e-01	-2.096616e-01	-2.096458e-01	-2.093998e-01	-2.092786e-01	-2.091260e-01	-2.091075e-01	-2.087498e-01	-2.087109e-01	-2.086376e-01	-2.086784e-01	-2.085226e-01	-2.086578e-01	-2.084998e-01	-2.084663e-01	-2.083490e-01	-2.082918e-01	-2.080637e-01	-2.081049e-01	-2.079947e-01	-2.079714e-01	-2.078124e-01	-2.079351e-01	-2.078783e-01	-2.079892e-01	-2.079335e-01	-2.079341e-01	-2.077497e-01	-2.077871e-01	-2.076205e-01	-2.074242e-01	-2.072486e-01	-2.073296e-01	-2.071725e-01	-2.071665e-01	-2.070827e-01	-2.070669e-01	-2.069047e-01	-2.069968e-01	-2.069275e-01	-2.068681e-01	-2.066410e-01	-2.066362e-01	-2.065085e-01	-2.065524e-01	-2.065042e-01	-2.065304e-01	-2.063890e-01	-2.064858e-01	-2.063720e-01	-2.062645e-01	-2.061599e-01	-2.062749e-01	-2.061156e-01	-2.060910e-01	-2.059939e-01	-2.059390e-01	-2.057439e-01	-2.058006e-01	-2.057202e-01	-2.057094e-01	-2.055631e-01	-2.056482e-01	-2.055477e-01	-2.056179e-01	-2.055958e-01	-2.057141e-01	-2.056950e-01	-2